 Gaussian 16, Revision A.03,
 Gaussian 16:  EM64L-G16RevA.03 25-Dec-2016

 -----------------------------------------
 # opt freq b3lyp/6-31+g geom=connectivity
 -----------------------------------------

 -------------------
 Title Card Required
 -------------------
 Symbolic Z-matrix:
 Charge =  0 Multiplicity = 1

 SCF Done:  E(RB3LYP) =  -40.5114804646     A.U. after    7 cycles
 SCF Done:  E(RB3LYP) =  -40.5129668991     A.U. after    6 cycles
 Optimization completed.
    -- Stationary point found.
 Normal termination of Gaussian 16 at Mon Jun  4 15:28:30 2018.

 ------------------------------------------------------------------
 #N Geom=AllCheck Guess=TCheck SCRF=Check GenChk RB3LYP/6-31+G Freq
 ------------------------------------------------------------------

 Structure from the checkpoint file:  "ch4.chk"
 -------------------
 Title Card Required
 -------------------
 Charge =  0 Multiplicity = 1

                         Standard orientation:
 ---------------------------------------------------------------------
 Center     Atomic      Atomic             Coordinates (Angstroms)
 Number     Number       Type             X           Y           Z
 ---------------------------------------------------------------------
      1          6           0        0.000000    0.000000    0.000000
      2          1           0        0.631529    0.631529    0.631529
      3          1           0       -0.631529   -0.631529    0.631529
      4          1           0       -0.631529    0.631529   -0.631529
      5          1           0        0.631529   -0.631529   -0.631529
 ---------------------------------------------------------------------

 SCF Done:  E(RB3LYP) =  -40.5129668991     A.U. after    1 cycles

 The electronic state is 1-A1.
 Alpha  occ. eigenvalues --  -10.16569  -0.69853  -0.39547  -0.39547  -0.39547
 Alpha virt. eigenvalues --    0.01669   0.06167   0.06167   0.06167   0.18080
 Alpha virt. eigenvalues --    0.18080   0.18080   0.27571   0.65200   0.65200
 Alpha virt. eigenvalues --    0.65200   0.99214   0.99214   0.99214   1.06125

 Mulliken charges:
               1
     1  C   -0.749761
     2  H    0.187440
     3  H    0.187440
     4  H    0.187440
     5  H    0.187440
 Sum of Mulliken charges =  -0.00000

 Dipole moment (field-independent basis, Debye):
    X=             -0.0000    Y=             -0.0000    Z=              0.0000  Tot=              0.0000
 Quadrupole moment (field-independent basis, Debye-Ang):
   XX=             -8.5549   YY=             -8.5549   ZZ=             -8.5549
   XY=              0.0000   XZ=             -0.0000   YZ=             -0.0000

  Exact polarizability:  13.153  -0.000  13.153  -0.000  -0.000  13.153
 Approx polarizability:  15.106   0.000  15.106  -0.000   0.000  15.106

                      1                      2                      3
                     T2                     T2                     T2
 Frequencies --   1396.9202              1396.9202              1396.9202
 Red. masses --      1.1828                 1.1828                 1.1828
 Frc consts  --      1.3599                 1.3599                 1.3599
 IR Inten    --     31.5069                31.5069                31.5069

                      4                      5                      6
                      E                      E                     A1
 Frequencies --   1592.1907              1592.1907              3037.8912
 Red. masses --      1.0078                 1.0078                 1.0078
 Frc consts  --      1.5053                 1.5053                 5.4800
 IR Inten    --      0.0000                 0.0000                 0.0000

                      7                      8                      9
                     T2                     T2                     T2
 Frequencies --   3156.0150              3156.0150              3156.0150
 Red. masses --      1.0984                 1.0984                 1.0984
 Frc consts  --      6.4458                 6.4458                 6.4458
 IR Inten    --     30.8108                30.8108                30.8108

 - Thermochemistry -
 -------------------
 Temperature   298.150 Kelvin.  Pressure   1.00000 Atm.
 Atom     1 has atomic number  6 and mass  12.00000

 Molecular mass:    16.03130 amu.
 Principal axes and moments of inertia in atomic units:
                           1         2         3
     Eigenvalues --    11.48309  11.48309  11.48309
           X           -0.21539   0.82644   0.52020
           Y            0.06366  -0.51969   0.85198
           Z            0.97445   0.21663   0.05932
 This molecule is a spherical top.
 Rotational symmetry number 12.
 Rotational temperatures (Kelvin)      7.54273     7.54273     7.54273
 Rotational constants (GHZ):         157.16508   157.16508   157.16508
 Zero-point vibrational energy     118915.3 (Joules/Mol)
                                   28.42143 (Kcal/Mol)
 Vibrational temperatures:   2009.86  2009.86  2009.86  2290.81  2290.81
          (Kelvin)           4370.85  4540.80  4540.80  4540.80

 Zero-point correction=                           0.045292 (Hartree/Particle)
 Thermal correction to Energy=                    0.048154
 Thermal correction to Enthalpy=                  0.049098
 Thermal correction to Gibbs Free Energy=         0.027968
 Sum of electronic and zero-point Energies=            -40.467674
 Sum of electronic and thermal Energies=               -40.464813
 Sum of electronic and thermal Enthalpies=             -40.463868
 Sum of electronic and thermal Free Energies=          -40.484999

                     E (Thermal)             CV                S
                      KCal/Mol        Cal/Mol-Kelvin    Cal/Mol-Kelvin
 Total                   30.217              6.391             44.472
 Electronic               0.000              0.000              0.000
 Translational            0.889              2.981             34.261
 Rotational               0.889              2.981             10.141
 Vibrational             28.440              0.429              0.071

 Optimization completed.
    -- Stationary point found.
 Normal termination of Gaussian 16 at Mon Jun  4 15:28:35 2018.
